 Gaussian 16, Revision C.01,
 Gaussian 16:  ES64L-G16RevC.01  3-Jul-2019

 -------------------
 # M062X/6-311G* opt
 -------------------

 ---
 opt
 ---
 Symbolic Z-matrix:
 Charge =  0 Multiplicity = 1

 SCF Done:  E(RM062X) =  -1973.80278400     A.U. after   15 cycles
 SCF Done:  E(RM062X) =  -1973.80564148     A.U. after   12 cycles
 SCF Done:  E(RM062X) =  -1973.80523723     A.U. after   12 cycles
 SCF Done:  E(RM062X) =  -1973.80634150     A.U. after   12 cycles
 SCF Done:  E(RM062X) =  -1973.80649716     A.U. after   12 cycles
 SCF Done:  E(RM062X) =  -1973.80654753     A.U. after   11 cycles
 SCF Done:  E(RM062X) =  -1973.80660652     A.U. after   11 cycles
 SCF Done:  E(RM062X) =  -1973.80662305     A.U. after   10 cycles
 SCF Done:  E(RM062X) =  -1973.80662455     A.U. after    9 cycles
 SCF Done:  E(RM062X) =  -1973.80662694     A.U. after    9 cycles
 SCF Done:  E(RM062X) =  -1973.80662636     A.U. after    7 cycles
 SCF Done:  E(RM062X) =  -1973.80662644     A.U. after    8 cycles
 SCF Done:  E(RM062X) =  -1973.80662708     A.U. after    8 cycles
 SCF Done:  E(RM062X) =  -1973.80662722     A.U. after    7 cycles
 SCF Done:  E(RM062X) =  -1973.80662716     A.U. after    6 cycles
 Optimization completed.
    -- Stationary point found.

                         Standard orientation:
 ---------------------------------------------------------------------
 Center     Atomic      Atomic             Coordinates (Angstroms)
 Number     Number       Type             X           Y           Z
 ---------------------------------------------------------------------
      1          6           0       -3.083666    0.450922    0.005357
      2          6           0       -5.078123    1.283841   -0.169381
      3          6           0       -5.249910   -0.063842    0.049022
      4          7           0       -3.964828   -0.591978    0.141389
      5          7           0       -3.739175    1.578135   -0.187804
      6          6           0       -6.469927   -0.872675    0.206514
      7          6           0       -7.444711   -0.469626    1.123997
      8          6           0       -6.685957   -2.027493   -0.551128
      9          6           0       -8.613338   -1.204449    1.277426
     10          1           0       -7.279926    0.428839    1.708874
     11          6           0       -7.852160   -2.765223   -0.389627
     12          1           0       -5.939686   -2.344428   -1.271648
     13          6           0       -8.818526   -2.355719    0.523384
     14          1           0       -9.362674   -0.879495    1.990176
     15          1           0       -8.008226   -3.658821   -0.983091
     16          1           0       -9.729180   -2.931001    0.645755
     17          6           0       -6.085842    2.337375   -0.370891
     18          6           0       -5.793514    3.644673    0.027526
     19          6           0       -7.319677    2.072681   -0.973139
     20          6           0       -6.721692    4.661602   -0.155171
     21          1           0       -4.831148    3.850707    0.481698
     22          6           0       -8.247061    3.091221   -1.150930
     23          1           0       -7.547642    1.070234   -1.317297
     24          6           0       -7.953721    4.387783   -0.740082
     25          1           0       -6.482241    5.670744    0.160904
     26          1           0       -9.198578    2.872776   -1.622638
     27          1           0       -8.678394    5.181498   -0.882340
     28          6           0       -3.660144   -1.981969    0.265277
     29          6           0       -4.096382   -2.685434    1.381749
     30          6           0       -2.945860   -2.615571   -0.745890
     31          6           0       -3.808365   -4.041079    1.487095
     32          1           0       -4.659323   -2.169037    2.150867
     33          6           0       -2.651163   -3.967790   -0.626423
     34          1           0       -2.615378   -2.041536   -1.604165
     35          6           0       -3.083152   -4.681604    0.487570
     36          1           0       -4.149063   -4.595394    2.353595
     37          1           0       -2.085944   -4.464235   -1.406330
     38          1           0       -2.855328   -5.737485    0.575716
     39          6           0       -1.619184    0.374639    0.052933
     40          6           0       -0.923114   -0.625830    0.745513
     41          6           0       -0.867550    1.378605   -0.598393
     42          6           0        0.457797   -0.678158    0.748979
     43          1           0       -1.474381   -1.377276    1.296617
     44          6           0        0.525578    1.304127   -0.604747
     45          6           0        1.203034    0.285206    0.054520
     46          1           0        0.962786   -1.483168    1.269703
     47          1           0        1.061128    2.102071   -1.106290
     48          6           0        2.683082    0.233382    0.039010
     49          6           0        3.403916   -0.150033    1.173851
     50          6           0        3.405807    0.570026   -1.109291
     51          6           0        4.788997   -0.201287    1.164823
     52          1           0        2.872203   -0.397010    2.086502
     53          6           0        4.791576    0.535363   -1.125313
     54          1           0        2.872997    0.855723   -2.009963
     55          6           0        5.502533    0.146256    0.013841
     56          1           0        5.329332   -0.499781    2.055972
     57          1           0        5.332900    0.804500   -2.025145
     58          8           0       -1.421896    2.426476   -1.227360
     59          1           0       -2.376774    2.461741   -1.020507
     60          7           0        6.915370    0.109213    0.006579
     61          6           0        7.611549   -0.319305   -1.149181
     62          6           0        7.142260   -1.401959   -1.898469
     63          6           0        8.779044    0.334360   -1.553410
     64          6           0        7.826329   -1.813492   -3.034592
     65          1           0        6.239493   -1.913461   -1.584101
     66          6           0        9.465438   -0.095555   -2.681181
     67          1           0        9.142432    1.177233   -0.976532
     68          6           0        8.993028   -1.167708   -3.431255
     69          1           0        7.449370   -2.654420   -3.605940
     70          1           0       10.369734    0.421673   -2.981830
     71          1           0        9.527555   -1.496030   -4.314796
     72          6           0        7.639933    0.526468    1.149929
     73          6           0        7.227765    1.644141    1.880565
     74          6           0        8.777796   -0.174456    1.558589
     75          6           0        7.938513    2.044120    3.004418
     76          1           0        6.348278    2.192190    1.561849
     77          6           0        9.491923    0.243415    2.673685
     78          1           0        9.096373   -1.043649    0.994230
     79          6           0        9.075775    1.350714    3.405985
     80          1           0        7.606398    2.913002    3.561492
     81          1           0       10.373180   -0.309952    2.978387
     82          1           0        9.631723    1.669875    4.279628
 ---------------------------------------------------------------------

 The electronic state is 1-A.
 Alpha  occ. eigenvalues --  -19.62376 -14.82251 -14.77701 -14.74265 -10.61882
 Alpha  occ. eigenvalues --  -10.60573 -10.60507 -10.58670 -10.58622 -10.58605
 Alpha  occ. eigenvalues --  -10.58584 -10.57187 -10.56767 -10.56451 -10.56414
 Alpha  occ. eigenvalues --  -10.56315 -10.56285 -10.56157 -10.55572 -10.55368
 Alpha  occ. eigenvalues --  -10.55328 -10.55243 -10.55221 -10.55155 -10.55153
 Alpha  occ. eigenvalues --  -10.55094 -10.54802 -10.54659 -10.54371 -10.54366
 Alpha  occ. eigenvalues --  -10.54351 -10.54348 -10.54342 -10.54295 -10.54067
 Alpha  occ. eigenvalues --  -10.54058 -10.54053 -10.54046 -10.54036 -10.54031
 Alpha  occ. eigenvalues --  -10.53918 -10.53866 -10.53858 -10.53835 -10.53821
 Alpha  occ. eigenvalues --  -10.53771 -10.53637 -10.53293 -10.53078  -1.17412
 Alpha  occ. eigenvalues --   -1.15242  -1.08272  -1.02686  -0.97949  -0.97554
 Alpha  occ. eigenvalues --   -0.97197  -0.96531  -0.96017  -0.95725  -0.94272
 Alpha  occ. eigenvalues --   -0.90683  -0.87895  -0.86773  -0.86643  -0.85943
 Alpha  occ. eigenvalues --   -0.85520  -0.85381  -0.84880  -0.84534  -0.84325
 Alpha  occ. eigenvalues --   -0.84053  -0.83886  -0.83378  -0.81278  -0.79192
 Alpha  occ. eigenvalues --   -0.74345  -0.73095  -0.72881  -0.71719  -0.71320
 Alpha  occ. eigenvalues --   -0.70569  -0.69939  -0.69925  -0.68871  -0.68797
 Alpha  occ. eigenvalues --   -0.68635  -0.68021  -0.67483  -0.66125  -0.65310
 Alpha  occ. eigenvalues --   -0.64728  -0.63379  -0.61544  -0.61407  -0.60370
 Alpha  occ. eigenvalues --   -0.59891  -0.59507  -0.57743  -0.57351  -0.56495
 Alpha  occ. eigenvalues --   -0.55882  -0.55683  -0.55267  -0.54412  -0.54312
 Alpha  occ. eigenvalues --   -0.53399  -0.53165  -0.52871  -0.52377  -0.52158
 Alpha  occ. eigenvalues --   -0.52042  -0.51555  -0.51347  -0.51049  -0.50759
 Alpha  occ. eigenvalues --   -0.50367  -0.49898  -0.49807  -0.49616  -0.49447
 Alpha  occ. eigenvalues --   -0.49248  -0.49044  -0.48997  -0.48630  -0.48428
 Alpha  occ. eigenvalues --   -0.48078  -0.46640  -0.45863  -0.45385  -0.45260
 Alpha  occ. eigenvalues --   -0.44914  -0.44191  -0.44184  -0.44007  -0.43904
 Alpha  occ. eigenvalues --   -0.42918  -0.42818  -0.42400  -0.42019  -0.41846
 Alpha  occ. eigenvalues --   -0.41431  -0.41244  -0.40835  -0.40605  -0.40322
 Alpha  occ. eigenvalues --   -0.40084  -0.39850  -0.39397  -0.37578  -0.36857
 Alpha  occ. eigenvalues --   -0.36162  -0.35215  -0.33050  -0.32710  -0.31922
 Alpha  occ. eigenvalues --   -0.31723  -0.31655  -0.31633  -0.30577  -0.30468
 Alpha  occ. eigenvalues --   -0.30407  -0.30170  -0.29124  -0.27656  -0.24879
 Alpha  occ. eigenvalues --   -0.22948
 Alpha virt. eigenvalues --   -0.02016  -0.00556   0.00173   0.00375   0.00899
 Alpha virt. eigenvalues --    0.01410   0.01657   0.02367   0.03039   0.03451
 Alpha virt. eigenvalues --    0.03535   0.03651   0.04532   0.06296   0.06676

 Mulliken charges:
               1
     1  C    0.493949
     2  C    0.012826
     3  C    0.216972
     4  N   -0.508761
     5  N   -0.526652
     6  C   -0.110432
     7  C   -0.199141
     8  C   -0.195697
     9  C   -0.212875
    10  H    0.249949
    11  C   -0.209917
    12  H    0.247062
    13  C   -0.218137
    14  H    0.227240
    15  H    0.225386
    16  H    0.225125
    17  C   -0.063369
    18  C   -0.186708
    19  C   -0.206369
    20  C   -0.226764
    21  H    0.241908
    22  C   -0.227152
    23  H    0.253542
    24  C   -0.214811
    25  H    0.221747
    26  H    0.219929
    27  H    0.219905
    28  C    0.035274
    29  C   -0.191686
    30  C   -0.198847
    31  C   -0.203737
    32  H    0.253767
    33  C   -0.202808
    34  H    0.255312
    35  C   -0.218194
    36  H    0.233287
    37  H    0.234874
    38  H    0.230370
    39  C   -0.148606
    40  C   -0.206072
    41  C    0.305366
    42  C   -0.244086
    43  H    0.260297
    44  C   -0.268498
    45  C   -0.004600
    46  H    0.229227
    47  H    0.247160
    48  C   -0.041434
    49  C   -0.205906
    50  C   -0.204391
    51  C   -0.255552
    52  H    0.237047
    53  C   -0.254841
    54  H    0.240826
    55  C    0.182876
    56  H    0.252579
    57  H    0.253812
    58  O   -0.596548
    59  H    0.438253
    60  N   -0.575659
    61  C    0.164693
    62  C   -0.245490
    63  C   -0.245067
    64  C   -0.212756
    65  H    0.251814
    66  C   -0.213222
    67  H    0.252068
    68  C   -0.227129
    69  H    0.222909
    70  H    0.223319
    71  H    0.220415
    72  C    0.157307
    73  C   -0.243939
    74  C   -0.242043
    75  C   -0.212882
    76  H    0.253618
    77  C   -0.213388
    78  H    0.251014
    79  C   -0.226901
    80  H    0.224298
    81  H    0.223089
    82  H    0.220655
 Sum of Mulliken charges =  -0.00000

 Dipole moment (field-independent basis, Debye):
    X=             -1.7307    Y=             -4.7206    Z=              1.2267  Tot=              5.1753
 Quadrupole moment (field-independent basis, Debye-Ang):
   XX=           -241.9308   YY=           -266.0673   ZZ=           -274.7491
   XY=             13.7612   XZ=             -5.5104   YZ=              5.8407

 Normal termination of Gaussian 16 at Mon Oct 24 15:47:42 2022.
